A_TON_A_A                                                               
SP        RTD-B3LYP-FC                                                6-31G(d)            
Number of atoms                            I               16
Info1-9                                    I   N=           9
          25          25           0           0           0         110
           1         218        -501
Charge                                     I                0
Multiplicity                               I                1
Number of electrons                        I               82
Number of alpha electrons                  I               41
Number of beta electrons                   I               41
Number of basis functions                  I              188
Number of independent functions            I              188
Number of point charges in /Mol/           I                0
Number of translation vectors              I                0
Atomic numbers                             I   N=          16
           6           6           6           6           6           6
           6           6           8           8           7           7
           1           1           1           1
Nuclear charges                            R   N=          16
  6.00000000E+00  6.00000000E+00  6.00000000E+00  6.00000000E+00  6.00000000E+00
  6.00000000E+00  6.00000000E+00  6.00000000E+00  8.00000000E+00  8.00000000E+00
  7.00000000E+00  7.00000000E+00  1.00000000E+00  1.00000000E+00  1.00000000E+00
  1.00000000E+00
Current cartesian coordinates              R   N=          48
  2.18299826E+00  1.28966722E+00  9.52797750E-05  2.20863355E+00 -1.38282268E+00
  2.40786138E-06  3.23134195E-02  2.78187254E+00  9.81942996E-05 -3.23133398E-02
 -2.78187182E+00 -9.84694990E-05 -2.20863360E+00  1.38282339E+00  7.72422791E-06
 -2.18299890E+00 -1.28966676E+00 -8.57675159E-05  6.00965730E+00 -1.31590416E-01
  1.55994030E-04 -6.00965774E+00  1.31589858E-01 -4.95271040E-05 -4.66203652E+00
 -2.07596690E+00 -1.95670586E-04  4.66203787E+00  2.07596666E+00  1.54057628E-04
 -4.72163806E+00  2.19943195E+00 -6.56372082E-05  4.72163746E+00 -2.19943236E+00
  0.00000000E+00  6.46716295E-02  4.82893549E+00  1.52901493E-04 -6.46713620E-02
 -4.82893553E+00 -1.86343087E-04  8.04155499E+00  7.39458945E-02  1.94329203E-04
 -8.04155554E+00 -7.39489788E-02 -1.14994398E-04
Force Field                                I                0
Int Atom Types                             I   N=          16
           0           0           0           0           0           0
           0           0           0           0           0           0
           0           0           0           0
MM charges                                 R   N=          16
  0.00000000E+00  0.00000000E+00  0.00000000E+00  0.00000000E+00  0.00000000E+00
  0.00000000E+00  0.00000000E+00  0.00000000E+00  0.00000000E+00  0.00000000E+00
  0.00000000E+00  0.00000000E+00  0.00000000E+00  0.00000000E+00  0.00000000E+00
  0.00000000E+00
Integer atomic weights                     I   N=          16
          12          12          12          12          12          12
          12          12          16          16          14          14
           1           1           1           1
Real atomic weights                        R   N=          16
  1.20000000E+01  1.20000000E+01  1.20000000E+01  1.20000000E+01  1.20000000E+01
  1.20000000E+01  1.20000000E+01  1.20000000E+01  1.59949146E+01  1.59949146E+01
  1.40030740E+01  1.40030740E+01  1.00782504E+00  1.00782504E+00  1.00782504E+00
  1.00782504E+00
Atom fragment info                         I   N=          16
           0           0           0           0           0           0
           0           0           0           0           0           0
           0           0           0           0
Atom residue num                           I   N=          16
           0           0           0           0           0           0
           0           0           0           0           0           0
           0           0           0           0
Nuclear spins                              I   N=          16
           0           0           0           0           0           0
           0           0           0           0           2           2
           1           1           1           1
Nuclear ZEff                               R   N=          16
 -3.60000000E+00 -3.60000000E+00 -3.60000000E+00 -3.60000000E+00 -3.60000000E+00
 -3.60000000E+00 -3.60000000E+00 -3.60000000E+00 -5.60000000E+00 -5.60000000E+00
 -4.55000000E+00 -4.55000000E+00 -1.00000000E+00 -1.00000000E+00 -1.00000000E+00
 -1.00000000E+00
Nuclear QMom                               R   N=          16
  0.00000000E+00  0.00000000E+00  0.00000000E+00  0.00000000E+00  0.00000000E+00
  0.00000000E+00  0.00000000E+00  0.00000000E+00  0.00000000E+00  0.00000000E+00
  2.04400000E+00  2.04400000E+00  0.00000000E+00  0.00000000E+00  0.00000000E+00
  0.00000000E+00
Nuclear GFac                               R   N=          16
  0.00000000E+00  0.00000000E+00  0.00000000E+00  0.00000000E+00  0.00000000E+00
  0.00000000E+00  0.00000000E+00  0.00000000E+00  0.00000000E+00  0.00000000E+00
  4.03761000E-01  4.03761000E-01  2.79284600E+00  2.79284600E+00  2.79284600E+00
  2.79284600E+00
MicOpt                                     I   N=          16
          -1          -1          -1          -1          -1          -1
          -1          -1          -1          -1          -1          -1
          -1          -1          -1          -1
Number of contracted shells                I               56
Number of primitive shells                 I              148
Pure/Cartesian d shells                    I                1
Pure/Cartesian f shells                    I                0
Highest angular momentum                   I                2
Largest degree of contraction              I                6
Shell types                                I   N=          56
           0          -1          -1           2           0          -1
          -1           2           0          -1          -1           2
           0          -1          -1           2           0          -1
          -1           2           0          -1          -1           2
           0          -1          -1           2           0          -1
          -1           2           0          -1          -1           2
           0          -1          -1           2           0          -1
          -1           2           0          -1          -1           2
           0           0           0           0           0           0
           0           0
Number of primitives per shell             I   N=          56
           6           3           1           1           6           3
           1           1           6           3           1           1
           6           3           1           1           6           3
           1           1           6           3           1           1
           6           3           1           1           6           3
           1           1           6           3           1           1
           6           3           1           1           6           3
           1           1           6           3           1           1
           3           1           3           1           3           1
           3           1
Shell to atom map                          I   N=          56
           1           1           1           1           2           2
           2           2           3           3           3           3
           4           4           4           4           5           5
           5           5           6           6           6           6
           7           7           7           7           8           8
           8           8           9           9           9           9
          10          10          10          10          11          11
          11          11          12          12          12          12
          13          13          14          14          15          15
          16          16
Primitive exponents                        R   N=         148
  3.04752488E+03  4.57369518E+02  1.03948685E+02  2.92101553E+01  9.28666296E+00
  3.16392696E+00  7.86827235E+00  1.88128854E+00  5.44249258E-01  1.68714478E-01
  8.00000000E-01  3.04752488E+03  4.57369518E+02  1.03948685E+02  2.92101553E+01
  9.28666296E+00  3.16392696E+00  7.86827235E+00  1.88128854E+00  5.44249258E-01
  1.68714478E-01  8.00000000E-01  3.04752488E+03  4.57369518E+02  1.03948685E+02
  2.92101553E+01  9.28666296E+00  3.16392696E+00  7.86827235E+00  1.88128854E+00
  5.44249258E-01  1.68714478E-01  8.00000000E-01  3.04752488E+03  4.57369518E+02
  1.03948685E+02  2.92101553E+01  9.28666296E+00  3.16392696E+00  7.86827235E+00
  1.88128854E+00  5.44249258E-01  1.68714478E-01  8.00000000E-01  3.04752488E+03
  4.57369518E+02  1.03948685E+02  2.92101553E+01  9.28666296E+00  3.16392696E+00
  7.86827235E+00  1.88128854E+00  5.44249258E-01  1.68714478E-01  8.00000000E-01
  3.04752488E+03  4.57369518E+02  1.03948685E+02  2.92101553E+01  9.28666296E+00
  3.16392696E+00  7.86827235E+00  1.88128854E+00  5.44249258E-01  1.68714478E-01
  8.00000000E-01  3.04752488E+03  4.57369518E+02  1.03948685E+02  2.92101553E+01
  9.28666296E+00  3.16392696E+00  7.86827235E+00  1.88128854E+00  5.44249258E-01
  1.68714478E-01  8.00000000E-01  3.04752488E+03  4.57369518E+02  1.03948685E+02
  2.92101553E+01  9.28666296E+00  3.16392696E+00  7.86827235E+00  1.88128854E+00
  5.44249258E-01  1.68714478E-01  8.00000000E-01  5.48467166E+03  8.25234946E+02
  1.88046958E+02  5.29645000E+01  1.68975704E+01  5.79963534E+00  1.55396162E+01
  3.59993359E+00  1.01376175E+00  2.70005823E-01  8.00000000E-01  5.48467166E+03
  8.25234946E+02  1.88046958E+02  5.29645000E+01  1.68975704E+01  5.79963534E+00
  1.55396162E+01  3.59993359E+00  1.01376175E+00  2.70005823E-01  8.00000000E-01
  4.17351146E+03  6.27457911E+02  1.42902093E+02  4.02343293E+01  1.28202129E+01
  4.39043701E+00  1.16263619E+01  2.71627981E+00  7.72218397E-01  2.12031498E-01
  8.00000000E-01  4.17351146E+03  6.27457911E+02  1.42902093E+02  4.02343293E+01
  1.28202129E+01  4.39043701E+00  1.16263619E+01  2.71627981E+00  7.72218397E-01
  2.12031498E-01  8.00000000E-01  1.87311370E+01  2.82539436E+00  6.40121692E-01
  1.61277759E-01  1.87311370E+01  2.82539436E+00  6.40121692E-01  1.61277759E-01
  1.87311370E+01  2.82539436E+00  6.40121692E-01  1.61277759E-01  1.87311370E+01
  2.82539436E+00  6.40121692E-01  1.61277759E-01
Contraction coefficients                   R   N=         148
  1.83473713E-03  1.40373228E-02  6.88426223E-02  2.32184443E-01  4.67941348E-01
  3.62311985E-01 -1.19332420E-01 -1.60854152E-01  1.14345644E+00  1.00000000E+00
  1.00000000E+00  1.83473713E-03  1.40373228E-02  6.88426223E-02  2.32184443E-01
  4.67941348E-01  3.62311985E-01 -1.19332420E-01 -1.60854152E-01  1.14345644E+00
  1.00000000E+00  1.00000000E+00  1.83473713E-03  1.40373228E-02  6.88426223E-02
  2.32184443E-01  4.67941348E-01  3.62311985E-01 -1.19332420E-01 -1.60854152E-01
  1.14345644E+00  1.00000000E+00  1.00000000E+00  1.83473713E-03  1.40373228E-02
  6.88426223E-02  2.32184443E-01  4.67941348E-01  3.62311985E-01 -1.19332420E-01
 -1.60854152E-01  1.14345644E+00  1.00000000E+00  1.00000000E+00  1.83473713E-03
  1.40373228E-02  6.88426223E-02  2.32184443E-01  4.67941348E-01  3.62311985E-01
 -1.19332420E-01 -1.60854152E-01  1.14345644E+00  1.00000000E+00  1.00000000E+00
  1.83473713E-03  1.40373228E-02  6.88426223E-02  2.32184443E-01  4.67941348E-01
  3.62311985E-01 -1.19332420E-01 -1.60854152E-01  1.14345644E+00  1.00000000E+00
  1.00000000E+00  1.83473713E-03  1.40373228E-02  6.88426223E-02  2.32184443E-01
  4.67941348E-01  3.62311985E-01 -1.19332420E-01 -1.60854152E-01  1.14345644E+00
  1.00000000E+00  1.00000000E+00  1.83473713E-03  1.40373228E-02  6.88426223E-02
  2.32184443E-01  4.67941348E-01  3.62311985E-01 -1.19332420E-01 -1.60854152E-01
  1.14345644E+00  1.00000000E+00  1.00000000E+00  1.83107443E-03  1.39501722E-02
  6.84450781E-02  2.32714336E-01  4.70192898E-01  3.58520853E-01 -1.10777550E-01
 -1.48026263E-01  1.13076702E+00  1.00000000E+00  1.00000000E+00  1.83107443E-03
  1.39501722E-02  6.84450781E-02  2.32714336E-01  4.70192898E-01  3.58520853E-01
 -1.10777550E-01 -1.48026263E-01  1.13076702E+00  1.00000000E+00  1.00000000E+00
  1.83477216E-03  1.39946270E-02  6.85865518E-02  2.32240873E-01  4.69069948E-01
  3.60455199E-01 -1.14961182E-01 -1.69117479E-01  1.14585195E+00  1.00000000E+00
  1.00000000E+00  1.83477216E-03  1.39946270E-02  6.85865518E-02  2.32240873E-01
  4.69069948E-01  3.60455199E-01 -1.14961182E-01 -1.69117479E-01  1.14585195E+00
  1.00000000E+00  1.00000000E+00  3.34946043E-02  2.34726953E-01  8.13757326E-01
  1.00000000E+00  3.34946043E-02  2.34726953E-01  8.13757326E-01  1.00000000E+00
  3.34946043E-02  2.34726953E-01  8.13757326E-01  1.00000000E+00  3.34946043E-02
  2.34726953E-01  8.13757326E-01  1.00000000E+00
P(S=P) Contraction coefficients            R   N=         148
  0.00000000E+00  0.00000000E+00  0.00000000E+00  0.00000000E+00  0.00000000E+00
  0.00000000E+00  6.89990666E-02  3.16423961E-01  7.44308291E-01  1.00000000E+00
  0.00000000E+00  0.00000000E+00  0.00000000E+00  0.00000000E+00  0.00000000E+00
  0.00000000E+00  0.00000000E+00  6.89990666E-02  3.16423961E-01  7.44308291E-01
  1.00000000E+00  0.00000000E+00  0.00000000E+00  0.00000000E+00  0.00000000E+00
  0.00000000E+00  0.00000000E+00  0.00000000E+00  6.89990666E-02  3.16423961E-01
  7.44308291E-01  1.00000000E+00  0.00000000E+00  0.00000000E+00  0.00000000E+00
  0.00000000E+00  0.00000000E+00  0.00000000E+00  0.00000000E+00  6.89990666E-02
  3.16423961E-01  7.44308291E-01  1.00000000E+00  0.00000000E+00  0.00000000E+00
  0.00000000E+00  0.00000000E+00  0.00000000E+00  0.00000000E+00  0.00000000E+00
  6.89990666E-02  3.16423961E-01  7.44308291E-01  1.00000000E+00  0.00000000E+00
  0.00000000E+00  0.00000000E+00  0.00000000E+00  0.00000000E+00  0.00000000E+00
  0.00000000E+00  6.89990666E-02  3.16423961E-01  7.44308291E-01  1.00000000E+00
  0.00000000E+00  0.00000000E+00  0.00000000E+00  0.00000000E+00  0.00000000E+00
  0.00000000E+00  0.00000000E+00  6.89990666E-02  3.16423961E-01  7.44308291E-01
  1.00000000E+00  0.00000000E+00  0.00000000E+00  0.00000000E+00  0.00000000E+00
  0.00000000E+00  0.00000000E+00  0.00000000E+00  6.89990666E-02  3.16423961E-01
  7.44308291E-01  1.00000000E+00  0.00000000E+00  0.00000000E+00  0.00000000E+00
  0.00000000E+00  0.00000000E+00  0.00000000E+00  0.00000000E+00  7.08742682E-02
  3.39752839E-01  7.27158577E-01  1.00000000E+00  0.00000000E+00  0.00000000E+00
  0.00000000E+00  0.00000000E+00  0.00000000E+00  0.00000000E+00  0.00000000E+00
  7.08742682E-02  3.39752839E-01  7.27158577E-01  1.00000000E+00  0.00000000E+00
  0.00000000E+00  0.00000000E+00  0.00000000E+00  0.00000000E+00  0.00000000E+00
  0.00000000E+00  6.75797439E-02  3.23907296E-01  7.40895140E-01  1.00000000E+00
  0.00000000E+00  0.00000000E+00  0.00000000E+00  0.00000000E+00  0.00000000E+00
  0.00000000E+00  0.00000000E+00  6.75797439E-02  3.23907296E-01  7.40895140E-01
  1.00000000E+00  0.00000000E+00  0.00000000E+00  0.00000000E+00  0.00000000E+00
  0.00000000E+00  0.00000000E+00  0.00000000E+00  0.00000000E+00  0.00000000E+00
  0.00000000E+00  0.00000000E+00  0.00000000E+00  0.00000000E+00  0.00000000E+00
  0.00000000E+00  0.00000000E+00  0.00000000E+00
Coordinates of each shell                  R   N=         168
  2.18299826E+00  1.28966722E+00  9.52797750E-05  2.18299826E+00  1.28966722E+00
  9.52797750E-05  2.18299826E+00  1.28966722E+00  9.52797750E-05  2.18299826E+00
  1.28966722E+00  9.52797750E-05  2.20863355E+00 -1.38282268E+00  2.40786138E-06
  2.20863355E+00 -1.38282268E+00  2.40786138E-06  2.20863355E+00 -1.38282268E+00
  2.40786138E-06  2.20863355E+00 -1.38282268E+00  2.40786138E-06  3.23134195E-02
  2.78187254E+00  9.81942996E-05  3.23134195E-02  2.78187254E+00  9.81942996E-05
  3.23134195E-02  2.78187254E+00  9.81942996E-05  3.23134195E-02  2.78187254E+00
  9.81942996E-05 -3.23133398E-02 -2.78187182E+00 -9.84694990E-05 -3.23133398E-02
 -2.78187182E+00 -9.84694990E-05 -3.23133398E-02 -2.78187182E+00 -9.84694990E-05
 -3.23133398E-02 -2.78187182E+00 -9.84694990E-05 -2.20863360E+00  1.38282339E+00
  7.72422791E-06 -2.20863360E+00  1.38282339E+00  7.72422791E-06 -2.20863360E+00
  1.38282339E+00  7.72422791E-06 -2.20863360E+00  1.38282339E+00  7.72422791E-06
 -2.18299890E+00 -1.28966676E+00 -8.57675159E-05 -2.18299890E+00 -1.28966676E+00
 -8.57675159E-05 -2.18299890E+00 -1.28966676E+00 -8.57675159E-05 -2.18299890E+00
 -1.28966676E+00 -8.57675159E-05  6.00965730E+00 -1.31590416E-01  1.55994030E-04
  6.00965730E+00 -1.31590416E-01  1.55994030E-04  6.00965730E+00 -1.31590416E-01
  1.55994030E-04  6.00965730E+00 -1.31590416E-01  1.55994030E-04 -6.00965774E+00
  1.31589858E-01 -4.95271040E-05 -6.00965774E+00  1.31589858E-01 -4.95271040E-05
 -6.00965774E+00  1.31589858E-01 -4.95271040E-05 -6.00965774E+00  1.31589858E-01
 -4.95271040E-05 -4.66203652E+00 -2.07596690E+00 -1.95670586E-04 -4.66203652E+00
 -2.07596690E+00 -1.95670586E-04 -4.66203652E+00 -2.07596690E+00 -1.95670586E-04
 -4.66203652E+00 -2.07596690E+00 -1.95670586E-04  4.66203787E+00  2.07596666E+00
  1.54057628E-04  4.66203787E+00  2.07596666E+00  1.54057628E-04  4.66203787E+00
  2.07596666E+00  1.54057628E-04  4.66203787E+00  2.07596666E+00  1.54057628E-04
 -4.72163806E+00  2.19943195E+00 -6.56372082E-05 -4.72163806E+00  2.19943195E+00
 -6.56372082E-05 -4.72163806E+00  2.19943195E+00 -6.56372082E-05 -4.72163806E+00
  2.19943195E+00 -6.56372082E-05  4.72163746E+00 -2.19943236E+00  0.00000000E+00
  4.72163746E+00 -2.19943236E+00  0.00000000E+00  4.72163746E+00 -2.19943236E+00
  0.00000000E+00  4.72163746E+00 -2.19943236E+00  0.00000000E+00  6.46716295E-02
  4.82893549E+00  1.52901493E-04  6.46716295E-02  4.82893549E+00  1.52901493E-04
 -6.46713620E-02 -4.82893553E+00 -1.86343087E-04 -6.46713620E-02 -4.82893553E+00
 -1.86343087E-04  8.04155499E+00  7.39458945E-02  1.94329203E-04  8.04155499E+00
  7.39458945E-02  1.94329203E-04 -8.04155554E+00 -7.39489788E-02 -1.14994398E-04
 -8.04155554E+00 -7.39489788E-02 -1.14994398E-04
Constraint Structure                       R   N=          48
  2.18299826E+00  1.28966722E+00  9.52797750E-05  2.20863355E+00 -1.38282268E+00
  2.40786138E-06  3.23134195E-02  2.78187254E+00  9.81942996E-05 -3.23133398E-02
 -2.78187182E+00 -9.84694990E-05 -2.20863360E+00  1.38282339E+00  7.72422791E-06
 -2.18299890E+00 -1.28966676E+00 -8.57675159E-05  6.00965730E+00 -1.31590416E-01
  1.55994030E-04 -6.00965774E+00  1.31589858E-01 -4.95271040E-05 -4.66203652E+00
 -2.07596690E+00 -1.95670586E-04  4.66203787E+00  2.07596666E+00  1.54057628E-04
 -4.72163806E+00  2.19943195E+00 -6.56372082E-05  4.72163746E+00 -2.19943236E+00
  0.00000000E+00  6.46716295E-02  4.82893549E+00  1.52901493E-04 -6.46713620E-02
 -4.82893553E+00 -1.86343087E-04  8.04155499E+00  7.39458945E-02  1.94329203E-04
 -8.04155554E+00 -7.39489788E-02 -1.14994398E-04
Num ILSW                                   I              100
ILSW                                       I   N=         100
           0           1           0           0           2           0
           0           0           0           0         402          -1
           0           0           0           0           0           0
           0           0           1           0           0           0
           1           0           0           0           0           0
           0           0      100000           0          -1           0
           0           0           0           0           0           0
           0           0           0           1           0           0
           0           0           1           0           0           0
           0           0           4          40           0           0
           0           0           5           0           0           0
           0           0           0           0           0           0
           0           0           0           0           0           0
           0           0           0           0           0           0
           0           0           0           0           0           0
           0           0           0           0           0           0
           0           0           0           0
Num RLSW                                   I               40
RLSW                                       R   N=          40
  8.00000000E-01  7.20000000E-01  1.00000000E+00  8.10000000E-01  2.00000000E-01
  0.00000000E+00  0.00000000E+00  1.00000000E+00  0.00000000E+00  0.00000000E+00
  0.00000000E+00  0.00000000E+00  1.00000000E+00  0.00000000E+00  0.00000000E+00
  0.00000000E+00  0.00000000E+00  1.00000000E+00  0.00000000E+00  0.00000000E+00
  0.00000000E+00  0.00000000E+00  1.00000000E+00  0.00000000E+00  0.00000000E+00
  0.00000000E+00  0.00000000E+00  1.00000000E+00  0.00000000E+00  0.00000000E+00
  0.00000000E+00  0.00000000E+00  0.00000000E+00  0.00000000E+00  0.00000000E+00
  0.00000000E+00  0.00000000E+00  0.00000000E+00  1.00000000E+00  1.00000000E+00
MxBond                                     I                3
NBond                                      I   N=          16
           3           3           3           3           3           3
           3           3           2           2           2           2
           1           1           1           1
IBond                                      I   N=          48
           2           3          10           1           4          12
           1           5          13           2           6          14
           3           6          11           4           5           9
          10          12          15           9          11          16
           6           8           0           1           7           0
           5           8           0           2           7           0
           3           0           0           4           0           0
           7           0           0           8           0           0
RBond                                      R   N=          48
  1.50000000E+00  1.50000000E+00  1.50000000E+00  1.50000000E+00  1.50000000E+00
  1.00000000E+00  1.50000000E+00  1.50000000E+00  1.00000000E+00  1.50000000E+00
  1.50000000E+00  1.00000000E+00  1.50000000E+00  1.50000000E+00  1.00000000E+00
  1.50000000E+00  1.50000000E+00  1.50000000E+00  1.50000000E+00  2.00000000E+00
  1.00000000E+00  1.50000000E+00  2.00000000E+00  1.00000000E+00  1.50000000E+00
  1.50000000E+00  0.00000000E+00  1.50000000E+00  1.50000000E+00  0.00000000E+00
  1.00000000E+00  2.00000000E+00  0.00000000E+00  1.00000000E+00  2.00000000E+00
  0.00000000E+00  1.00000000E+00  0.00000000E+00  0.00000000E+00  1.00000000E+00
  0.00000000E+00  0.00000000E+00  1.00000000E+00  0.00000000E+00  0.00000000E+00
  1.00000000E+00  0.00000000E+00  0.00000000E+00
Virial Ratio                               R      2.009021991713967E+00
SCF Energy                                 R     -5.671965205303625E+02
CIS Energy                                 R     -5.670198752460736E+02
Total Energy                               R     -5.670198752460736E+02
Post-SCF wavefunction norm                 R      1.000000000000000E+00
RMS Density                                R      8.955450655421392E-09
External E-field                           R   N=          35
  0.00000000E+00  0.00000000E+00  0.00000000E+00  0.00000000E+00  0.00000000E+00
  0.00000000E+00  0.00000000E+00  0.00000000E+00  0.00000000E+00  0.00000000E+00
  0.00000000E+00  0.00000000E+00  0.00000000E+00  0.00000000E+00  0.00000000E+00
  0.00000000E+00  0.00000000E+00  0.00000000E+00  0.00000000E+00  0.00000000E+00
  0.00000000E+00  0.00000000E+00  0.00000000E+00  0.00000000E+00  0.00000000E+00
  0.00000000E+00  0.00000000E+00  0.00000000E+00  0.00000000E+00  0.00000000E+00
  0.00000000E+00  0.00000000E+00  0.00000000E+00  0.00000000E+00  0.00000000E+00
IOpCl                                      I                0
IROHF                                      I                0
Alpha Orbital Energies                     R   N=         188
 -1.92341783E+01 -1.92341777E+01 -1.43458988E+01 -1.43458987E+01 -1.02922670E+01
 -1.02922664E+01 -1.02617085E+01 -1.02616997E+01 -1.02357370E+01 -1.02357285E+01
 -1.02153197E+01 -1.02153151E+01 -1.13878470E+00 -1.13789118E+00 -9.39334489E-01
 -9.37771158E-01 -8.65626008E-01 -7.75273273E-01 -7.58529436E-01 -6.84673658E-01
 -6.34232614E-01 -6.18159109E-01 -6.03182373E-01 -5.57749272E-01 -5.50339449E-01
 -5.01352549E-01 -4.89194614E-01 -4.75999023E-01 -4.72082151E-01 -4.70736199E-01
 -4.43827846E-01 -4.28269162E-01 -4.06978184E-01 -3.75537364E-01 -3.59959879E-01
 -3.52708272E-01 -3.24190360E-01 -3.03863947E-01 -3.00113267E-01 -2.49500096E-01
 -2.37430572E-01 -4.85015880E-02  4.27033822E-03  9.89256008E-03  4.69836137E-02
  9.77493995E-02  1.19562554E-01  1.24360471E-01  1.27923265E-01  1.51490568E-01
  1.66941713E-01  1.78905467E-01  2.05332519E-01  2.17425232E-01  2.35331470E-01
  2.58011069E-01  2.85518809E-01  3.27083757E-01  3.31234213E-01  3.67749442E-01
  3.69810462E-01  4.08852088E-01  4.67644273E-01  4.75782346E-01  4.89300256E-01
  5.10061850E-01  5.14720654E-01  5.32137501E-01  5.39060839E-01  5.39814322E-01
  5.59523644E-01  5.75331284E-01  5.77652524E-01  6.00300931E-01  6.30321882E-01
  6.34405742E-01  6.55239963E-01  6.58744766E-01  6.74792169E-01  6.74913740E-01
  6.78226555E-01  6.99207420E-01  7.70127427E-01  7.72717162E-01  7.80245271E-01
  7.84880438E-01  7.95673940E-01  8.11411524E-01  8.23769974E-01  8.44868564E-01
  8.50749286E-01  8.70381570E-01  8.88825441E-01  8.95542510E-01  9.19656910E-01
  9.48757968E-01  9.61104676E-01  9.73989473E-01  9.91801555E-01  9.98019150E-01
  1.05443212E+00  1.05782973E+00  1.13402211E+00  1.14572898E+00  1.18719523E+00
  1.19020671E+00  1.24483565E+00  1.30096311E+00  1.30317702E+00  1.30406260E+00
  1.32524894E+00  1.32732715E+00  1.34822053E+00  1.36454389E+00  1.39298173E+00
  1.44023962E+00  1.46645875E+00  1.46895216E+00  1.47701449E+00  1.47820691E+00
  1.51119708E+00  1.54546524E+00  1.57389997E+00  1.63337278E+00  1.65665036E+00
  1.71106027E+00  1.76349478E+00  1.81420039E+00  1.81658526E+00  1.84352656E+00
  1.85564656E+00  1.87873093E+00  1.88606666E+00  1.92468551E+00  1.92595044E+00
  1.92639738E+00  1.95755469E+00  1.98641907E+00  2.05843532E+00  2.06756350E+00
  2.09886994E+00  2.13985613E+00  2.16381102E+00  2.20515075E+00  2.21562514E+00
  2.22648347E+00  2.22700457E+00  2.26994809E+00  2.28873475E+00  2.29926193E+00
  2.30234977E+00  2.41989934E+00  2.42853097E+00  2.45123613E+00  2.46526398E+00
  2.48563542E+00  2.50250916E+00  2.53294417E+00  2.54419457E+00  2.61180413E+00
  2.61435626E+00  2.64526059E+00  2.67959067E+00  2.71406292E+00  2.73083275E+00
  2.75396469E+00  2.77177902E+00  2.82092570E+00  2.89783058E+00  2.91610461E+00
  3.03719500E+00  3.04138608E+00  3.09984491E+00  3.12322675E+00  3.23003800E+00
  3.47089331E+00  3.98494468E+00  4.00095204E+00  4.09332366E+00  4.10627369E+00
  4.15814306E+00  4.18835245E+00  4.19817410E+00  4.23523757E+00  4.41163670E+00
  4.51031322E+00  4.57998271E+00  4.84071001E+00
Alpha MO coefficients                      R   N=       35344
  4.62804315E-05 -2.22909710E-05 -3.05993861E-04 -1.47005318E-04 -7.06573304E-09
 -4.91915345E-04  3.61401675E-03  1.18755696E-03  9.33314639E-08  3.47720149E-05
 -1.22443090E-05  8.33582707E-05 -8.38820367E-06 -1.90455720E-09 -4.08128279E-09
 -5.99631472E-06 -1.35219422E-04  9.06331481E-06  2.96384893E-05  1.99192297E-09
  2.37266435E-03 -1.85764054E-03  4.37234965E-05 -3.72143205E-08  7.85583188E-05
  1.02918700E-04  6.31436272E-06  2.32958055E-05  1.30158708E-09  4.41589724E-09
 -1.77778549E-05 -1.49083120E-04 -4.61982002E-05 -2.53800589E-05 -1.71587376E-09
  3.13812141E-03 -4.04255013E-04 -2.09967899E-03 -6.75315789E-08  3.93621067E-05
  4.91799922E-05 -3.31409340E-05  1.09149323E-05  2.12269993E-09  2.72001374E-09
  1.75777226E-05  1.48077504E-04 -4.40811037E-05 -2.42933295E-05 -1.61007891E-09
 -3.10386541E-03 -4.10400014E-04 -2.09884727E-03 -1.00570011E-07 -3.78734967E-05
 -4.96426267E-05  3.30944357E-05 -1.03247405E-05 -1.85325759E-09 -5.39673969E-09
  6.65389412E-06  1.41275546E-04  1.24777536E-05  3.09200233E-05  6.11096743E-10
 -2.39421706E-03 -1.92796658E-03  5.56943910E-05 -3.64252605E-08 -8.03142243E-05
 -1.05250598E-04 -5.17410523E-06 -2.42103610E-05 -4.98348442E-09 -4.06182606E-09
 -4.69767035E-05  2.78573717E-05 -3.16223259E-04 -1.50805103E-04 -1.81368936E-08
  4.44315466E-04  3.69006378E-03  1.23179563E-03  1.54339984E-07 -3.52895881E-05
  1.27828388E-05 -8.45113582E-05  1.07053715E-05  9.06561756E-10  4.19603221E-09
  7.17200631E-06 -1.72650454E-04  1.14626954E-04 -2.18681786E-04  1.55671688E-09
  8.90726755E-04 -2.09606731E-04  8.58462866E-04  6.28283908E-09  2.22914526E-05
 -1.49945551E-04  2.76370198E-05  3.86203026E-05  6.66754933E-10 -3.22172757E-09
 -6.89421502E-06  1.81231253E-04  1.19821374E-04 -2.26894505E-04 -1.89259100E-08
 -9.29292882E-04 -2.22960539E-04  8.86936827E-04  6.29760903E-08 -2.27104192E-05
  1.55797639E-04 -2.74247371E-05 -4.01453460E-05 -2.53316710E-09  1.25297010E-08
  7.14345516E-01  1.82514097E-02  2.24075304E-04  6.40328099E-04  5.65755090E-08
  1.13337110E-02  7.50551550E-04  3.69799995E-04  5.02665505E-08 -6.03138051E-03
 -6.14770105E-03 -6.06968186E-03  2.89291542E-05  4.25640153E-09 -5.31038081E-09
 -6.89205146E-01 -1.76057807E-02  2.16325262E-04  6.17448674E-04  1.01392880E-08
 -1.09574108E-02  7.27854310E-04  3.60719435E-04  1.56541212E-08  5.82077390E-03
  5.93321567E-03  5.85804434E-03 -2.82954468E-05 -6.59945121E-10  9.67242951E-10
  3.64971978E-06  4.83339326E-05 -2.61358917E-05  3.36534616E-05  2.57056925E-09